<?xml version="1.0"?>
<VTKFile type="RectilinearGrid" version="1.0" byte_order="LittleEndian">
	<RectilinearGrid WholeExtent="0 5 0 0 0 0"> 
		<Piece Extent="0 5 0 0 0 0"> 
			<PointData Scalars="Solution">
				<DataArray Name="Solution" type="Float32" NumberOfComponents="1" format="ascii" >
					-1.34859 8.52628 -6.19535 16.7472 -14.2261 21.6444 
				</DataArray>
			</PointData>
			<CellData>
			</CellData>
			<Coordinates>
				<DataArray type="Float32" NumberOfComponents="1" format="ascii" >
					0 0.8 1.6 2.4 3.2 4 
				</DataArray>
				<DataArray type="Float64" NumberOfComponents="1" format="ascii" >
					0 
				</DataArray>
				<DataArray type="Float64" NumberOfComponents="1" format="ascii" >
					0 
				</DataArray>
			</Coordinates>
		</Piece>
	</RectilinearGrid>
</VTKFile>
